nqpoint: 707    
npath: 7      
segment_nqpoint:
- 101
- 101
- 101
- 101
- 101
- 101
- 101
reciprocal_lattice:
- [   0.30896229,   0.17837999,   0.00000000 ] # a*
- [   0.00000045,   0.35675920,   0.00000000 ] # b*
- [   0.00000000,   0.00000000,   0.19150384 ] # c*
natom: 4      
lattice:
- [     3.236643297029419,    -0.000004052609673,    -0.000000008247457 ] # a
- [    -1.618325163289673,     2.803013169184712,    -0.000000008474638 ] # b
- [    -0.000000013524489,    -0.000000021484206,     5.221827480357108 ] # c
points:
- symbol: Zn # 1
  coordinates: [  0.333333714081422,  0.666666283392204,  0.001710792634210 ]
  mass: 65.380000
- symbol: Zn # 2
  coordinates: [  0.666666286864379,  0.333333717502406,  0.501710792635156 ]
  mass: 65.380000
- symbol: O  # 3
  coordinates: [  0.333333602413622,  0.666666384849429,  0.380789207366057 ]
  mass: 15.999400
- symbol: O  # 4
  coordinates: [  0.666666396640585,  0.333333614255960,  0.880789207364577 ]
  mass: 15.999400
supercell_matrix:
- [   36,    0,    0 ]
- [    0,   36,    0 ]
- [    0,    0,   16 ]

phonon:
- q-position: [    0.0000000,    0.0000000,    0.0000000 ]
  distance:    0.0000000
  label: '\Gamma'
  band:
  - # 1
    frequency:   -0.0000042718
  - # 2
    frequency:   -0.0000016229
  - # 3
    frequency:    0.0000002141
  - # 4
    frequency:    2.6335762125
  - # 5
    frequency:    2.6336139973
  - # 6
    frequency:    7.5706383299
  - # 7
    frequency:   11.1605386200
  - # 8
    frequency:   11.7408336673
  - # 9
    frequency:   11.7408378269
  - # 10
    frequency:   12.7140385871
  - # 11
    frequency:   12.7140396371
  - # 12
    frequency:   15.9620383734

- q-position: [    0.0000000,    0.0000000,    0.0050000 ]
  distance:    0.0009575
  band:
  - # 1
    frequency:    0.0236583330
  - # 2
    frequency:    0.0236617994
  - # 3
    frequency:    0.0706690371
  - # 4
    frequency:    2.6335169705
  - # 5
    frequency:    2.6335547583
  - # 6
    frequency:    7.5702582676
  - # 7
    frequency:   11.1646338898
  - # 8
    frequency:   11.7408964925
  - # 9
    frequency:   11.7409006479
  - # 10
    frequency:   12.7139805864
  - # 11
    frequency:   12.7139816369
  - # 12
    frequency:   15.9623982233

- q-position: [    0.0000000,    0.0000000,    0.0100000 ]
  distance:    0.0019150
  band:
  - # 1
    frequency:    0.0473144344
  - # 2
    frequency:    0.0473208894
  - # 3
    frequency:    0.1412990769
  - # 4
    frequency:    2.6333392399
  - # 5
    frequency:    2.6333770369
  - # 6
    frequency:    7.5691199934
  - # 7
    frequency:   11.1769006466
  - # 8
    frequency:   11.7410849496
  - # 9
    frequency:   11.7410890922
  - # 10
    frequency:   12.7138065971
  - # 11
    frequency:   12.7138076492
  - # 12
    frequency:   15.9634747801

- q-position: [    0.0000000,    0.0000000,    0.0150000 ]
  distance:    0.0028726
  band:
  - # 1
    frequency:    0.0709655485
  - # 2
    frequency:    0.0709750841
  - # 3
    frequency:    0.2118512461
  - # 4
    frequency:    2.6330430071
  - # 5
    frequency:    2.6330808193
  - # 6
    frequency:    7.5672292202
  - # 7
    frequency:   11.1972819698
  - # 8
    frequency:   11.7413989828
  - # 9
    frequency:   11.7414031041
  - # 10
    frequency:   12.7135166579
  - # 11
    frequency:   12.7135177128
  - # 12
    frequency:   15.9652590912

- q-position: [    0.0000000,    0.0000000,    0.0200000 ]
  distance:    0.0038301
  band:
  - # 1
    frequency:    0.0946092442
  - # 2
    frequency:    0.0946218756
  - # 3
    frequency:    0.2822869174
  - # 4
    frequency:    2.6326282493
  - # 5
    frequency:    2.6326660827
  - # 6
    frequency:    7.5645953875
  - # 7
    frequency:   11.2256837781
  - # 8
    frequency:   11.7418384992
  - # 9
    frequency:   11.7418425909
  - # 10
    frequency:   12.7131108335
  - # 11
    frequency:   12.7131118922
  - # 12
    frequency:   15.9677363224

- q-position: [    0.0000000,    0.0000000,    0.0250000 ]
  distance:    0.0047876
  band:
  - # 1
    frequency:    0.1182430632
  - # 2
    frequency:    0.1182587861
  - # 3
    frequency:    0.3525678312
  - # 4
    frequency:    2.6320949346
  - # 5
    frequency:    2.6321327951
  - # 6
    frequency:    7.5612315394
  - # 7
    frequency:   11.2619759838
  - # 8
    frequency:   11.7424033689
  - # 9
    frequency:   11.7424074225
  - # 10
    frequency:   12.7125892143
  - # 11
    frequency:   12.7125902779
  - # 12
    frequency:   15.9708858864

- q-position: [    0.0000000,    0.0000000,    0.0300000 ]
  distance:    0.0057451
  band:
  - # 1
    frequency:    0.1418645438
  - # 2
    frequency:    0.1418833448
  - # 3
    frequency:    0.4226562138
  - # 4
    frequency:    2.6314430220
  - # 5
    frequency:    2.6314809152
  - # 6
    frequency:    7.5571541576
  - # 7
    frequency:   11.3059940612
  - # 8
    frequency:   11.7430934248
  - # 9
    frequency:   11.7430974323
  - # 10
    frequency:   12.7119519166
  - # 11
    frequency:   12.7119529860
  - # 12
    frequency:   15.9746816202

- q-position: [    0.0000000,    0.0000000,    0.0350000 ]
  distance:    0.0067026
  band:
  - # 1
    frequency:    0.1654712250
  - # 2
    frequency:    0.1654930844
  - # 3
    frequency:    0.4925148927
  - # 4
    frequency:    2.6306724611
  - # 5
    frequency:    2.6307103926
  - # 6
    frequency:    7.5523829510
  - # 7
    frequency:   11.3575409842
  - # 8
    frequency:   11.7439084629
  - # 9
    frequency:   11.7439124163
  - # 10
    frequency:   12.7111990823
  - # 11
    frequency:   12.7112001586
  - # 12
    frequency:   15.9790920091

- q-position: [    0.0000000,    0.0000000,    0.0400000 ]
  distance:    0.0076602
  band:
  - # 1
    frequency:    0.1890606480
  - # 2
    frequency:    0.1890855413
  - # 3
    frequency:    0.5621074083
  - # 4
    frequency:    2.6297831921
  - # 5
    frequency:    2.6298211673
  - # 6
    frequency:    7.5469406072
  - # 7
    frequency:   11.4163894794
  - # 8
    frequency:   11.7448482427
  - # 9
    frequency:   11.7448521341
  - # 10
    frequency:   12.7103308793
  - # 11
    frequency:   12.7103319635
  - # 12
    frequency:   15.9840804537

- q-position: [    0.0000000,    0.0000000,    0.0450000 ]
  distance:    0.0086177
  band:
  - # 1
    frequency:    0.2126303568
  - # 2
    frequency:    0.2126582554
  - # 3
    frequency:    0.6313981217
  - # 4
    frequency:    2.6287751459
  - # 5
    frequency:    2.6288131698
  - # 6
    frequency:    7.5408525091
  - # 7
    frequency:   11.4822845358
  - # 8
    frequency:   11.7459124865
  - # 9
    frequency:   11.7459163085
  - # 10
    frequency:   12.7093475013
  - # 11
    frequency:   12.7093485942
  - # 12
    frequency:   15.9896055755

- q-position: [    0.0000000,    0.0000000,    0.0500000 ]
  distance:    0.0095752
  band:
  - # 1
    frequency:    0.2361778990
  - # 2
    frequency:    0.2362087701
  - # 3
    frequency:    0.7003523180
  - # 4
    frequency:    2.6276482436
  - # 5
    frequency:    2.6276863213
  - # 6
    frequency:    7.5341464214
  - # 7
    frequency:   11.5549461081
  - # 8
    frequency:   11.7471008806
  - # 9
    frequency:   11.7471046257
  - # 10
    frequency:   12.7082491677
  - # 11
    frequency:   12.7082502702
  - # 12
    frequency:   15.9956215595

- q-position: [    0.0000000,    0.0000000,    0.0550000 ]
  distance:    0.0105327
  band:
  - # 1
    frequency:    0.2597008263
  - # 2
    frequency:    0.2597346334
  - # 3
    frequency:    0.7689363055
  - # 4
    frequency:    2.6264023969
  - # 5
    frequency:    2.6264405328
  - # 6
    frequency:    7.5268521534
  - # 7
    frequency:   11.6340719506
  - # 8
    frequency:   11.7484130746
  - # 9
    frequency:   11.7484167359
  - # 10
    frequency:   12.7070361235
  - # 11
    frequency:   12.7070372364
  - # 12
    frequency:   16.0020785260

- q-position: [    0.0000000,    0.0000000,    0.0600000 ]
  distance:    0.0114902
  band:
  - # 1
    frequency:    0.2831966949
  - # 2
    frequency:    0.2832333979
  - # 3
    frequency:    0.8371175107
  - # 4
    frequency:    2.6250375075
  - # 5
    frequency:    2.6250757059
  - # 6
    frequency:    7.5190012017
  - # 7
    frequency:   11.7193405205
  - # 8
    frequency:   11.7498486820
  - # 9
    frequency:   11.7498522528
  - # 10
    frequency:   12.7057086396
  - # 11
    frequency:   12.7057097637
  - # 12
    frequency:   16.0089229298

- q-position: [    0.0000000,    0.0000000,    0.0650000 ]
  distance:    0.0124477
  band:
  - # 1
    frequency:    0.3066630657
  - # 2
    frequency:    0.3067026212
  - # 3
    frequency:    0.9048645697
  - # 4
    frequency:    2.6235534671
  - # 5
    frequency:    2.6235917321
  - # 6
    frequency:    7.5106263804
  - # 7
    frequency:   11.7514072803
  - # 8
    frequency:   11.7514107544
  - # 9
    frequency:   11.8104138942
  - # 10
    frequency:   12.7042670126
  - # 11
    frequency:   12.7042681484
  - # 12
    frequency:   16.0160979805

- q-position: [    0.0000000,    0.0000000,    0.0700000 ]
  distance:    0.0134053
  band:
  - # 1
    frequency:    0.3300975057
  - # 2
    frequency:    0.3301398667
  - # 3
    frequency:    0.9721474148
  - # 4
    frequency:    2.6219501574
  - # 5
    frequency:    2.6219884925
  - # 6
    frequency:    7.5017614431
  - # 7
    frequency:   11.7530884115
  - # 8
    frequency:   11.7530917830
  - # 9
    frequency:   11.9069406432
  - # 10
    frequency:   12.7027115645
  - # 11
    frequency:   12.7027127128
  - # 12
    frequency:   16.0235440794

- q-position: [    0.0000000,    0.0000000,    0.0750000 ]
  distance:    0.0143628
  band:
  - # 1
    frequency:    0.3534975876
  - # 2
    frequency:    0.3535427040
  - # 3
    frequency:    1.0389373583
  - # 4
    frequency:    2.6202274497
  - # 5
    frequency:    2.6202658582
  - # 6
    frequency:    7.4924407029
  - # 7
    frequency:   11.7548915819
  - # 8
    frequency:   11.7548948454
  - # 9
    frequency:   12.0085586279
  - # 10
    frequency:   12.7010426433
  - # 11
    frequency:   12.7010438046
  - # 12
    frequency:   16.0311992691

- q-position: [    0.0000000,    0.0000000,    0.0800000 ]
  distance:    0.0153203
  band:
  - # 1
    frequency:    0.3768608905
  - # 2
    frequency:    0.3769087091
  - # 3
    frequency:    1.1052071730
  - # 4
    frequency:    2.6183852049
  - # 5
    frequency:    2.6184236896
  - # 6
    frequency:    7.4826986555
  - # 7
    frequency:   11.7568162626
  - # 8
    frequency:   11.7568194132
  - # 9
    frequency:   12.1148976690
  - # 10
    frequency:   12.6992606223
  - # 11
    frequency:   12.6992617970
  - # 12
    frequency:   16.0389996898

- q-position: [    0.0000000,    0.0000000,    0.0850000 ]
  distance:    0.0162778
  band:
  - # 1
    frequency:    0.4001850007
  - # 2
    frequency:    0.4002354654
  - # 3
    frequency:    1.1709311687
  - # 4
    frequency:    2.6164232731
  - # 5
    frequency:    2.6164618366
  - # 6
    frequency:    7.4725696104
  - # 7
    frequency:   11.7588618898
  - # 8
    frequency:   11.7588649232
  - # 9
    frequency:   12.2255820694
  - # 10
    frequency:   12.6973659005
  - # 11
    frequency:   12.6973670889
  - # 12
    frequency:   16.0468800396

- q-position: [    0.0000000,    0.0000000,    0.0900000 ]
  distance:    0.0172353
  band:
  - # 1
    frequency:    0.4234675119
  - # 2
    frequency:    0.4235205636
  - # 3
    frequency:    1.2360852669
  - # 4
    frequency:    2.6143414939
  - # 5
    frequency:    2.6143801381
  - # 6
    frequency:    7.4620873356
  - # 7
    frequency:   11.7610278651
  - # 8
    frequency:   11.7610307775
  - # 9
    frequency:   12.3402329645
  - # 10
    frequency:   12.6953589022
  - # 11
    frequency:   12.6953601047
  - # 12
    frequency:   16.0547740337

- q-position: [    0.0000000,    0.0000000,    0.0950000 ]
  distance:    0.0181929
  band:
  - # 1
    frequency:    0.4467060261
  - # 2
    frequency:    0.4467616028
  - # 3
    frequency:    1.3006470718
  - # 4
    frequency:    2.6121396955
  - # 5
    frequency:    2.6121784221
  - # 6
    frequency:    7.4512847191
  - # 7
    frequency:   11.7633135555
  - # 8
    frequency:   11.7633163442
  - # 9
    frequency:   12.4584704843
  - # 10
    frequency:   12.6932400774
  - # 11
    frequency:   12.6932412942
  - # 12
    frequency:   16.0626148593

- q-position: [    0.0000000,    0.0000000,    0.1000000 ]
  distance:    0.0191504
  band:
  - # 1
    frequency:    0.4698981534
  - # 2
    frequency:    0.4699561908
  - # 3
    frequency:    1.3645959388
  - # 4
    frequency:    2.6098176951
  - # 5
    frequency:    2.6098565053
  - # 6
    frequency:    7.4401934519
  - # 7
    frequency:   11.7657182943
  - # 8
    frequency:   11.7657209571
  - # 9
    frequency:   12.5799157219
  - # 10
    frequency:   12.6910099013
  - # 11
    frequency:   12.6910111326
  - # 12
    frequency:   16.0703356227

- q-position: [    0.0000000,    0.0000000,    0.1050000 ]
  distance:    0.0201079
  band:
  - # 1
    frequency:    0.4930415133
  - # 2
    frequency:    0.4931019445
  - # 3
    frequency:    1.4279130399
  - # 4
    frequency:    2.6073752983
  - # 5
    frequency:    2.6074141930
  - # 6
    frequency:    7.4288437349
  - # 7
    frequency:   11.7682413810
  - # 8
    frequency:   11.7682439168
  - # 9
    frequency:   12.6886688746
  - # 10
    frequency:   12.6886701204
  - # 11
    frequency:   12.7041925035
  - # 12
    frequency:   16.0778697857

- q-position: [    0.0000000,    0.0000000,    0.1100000 ]
  distance:    0.0210654
  band:
  - # 1
    frequency:    0.5161337349
  - # 2
    frequency:    0.5161964904
  - # 3
    frequency:    1.4905814263
  - # 4
    frequency:    2.6048122994
  - # 5
    frequency:    2.6048512788
  - # 6
    frequency:    7.4172640138
  - # 7
    frequency:   11.7708820817
  - # 8
    frequency:   11.7708844905
  - # 9
    frequency:   12.6862175233
  - # 10
    frequency:   12.6862187834
  - # 11
    frequency:   12.8309289634
  - # 12
    frequency:   16.0851515891

- q-position: [    0.0000000,    0.0000000,    0.1150000 ]
  distance:    0.0220229
  band:
  - # 1
    frequency:    0.5391724572
  - # 2
    frequency:    0.5392374656
  - # 3
    frequency:    1.5525860879
  - # 4
    frequency:    2.6021284806
  - # 5
    frequency:    2.6021675446
  - # 6
    frequency:    7.4054807426
  - # 7
    frequency:   11.7736396297
  - # 8
    frequency:   11.7736419126
  - # 9
    frequency:   12.6836563983
  - # 10
    frequency:   12.6836576727
  - # 11
    frequency:   12.9597589288
  - # 12
    frequency:   16.0921164606

- q-position: [    0.0000000,    0.0000000,    0.1200000 ]
  distance:    0.0229805
  band:
  - # 1
    frequency:    0.5621553302
  - # 2
    frequency:    0.5622225177
  - # 3
    frequency:    1.6139140095
  - # 4
    frequency:    2.5993236122
  - # 5
    frequency:    2.5993627603
  - # 6
    frequency:    7.3935181787
  - # 7
    frequency:   11.7765132255
  - # 8
    frequency:   11.7765153851
  - # 9
    frequency:   12.6809860761
  - # 10
    frequency:   12.6809873646
  - # 11
    frequency:   13.0903231245
  - # 12
    frequency:   16.0987014055

- q-position: [    0.0000000,    0.0000000,    0.1250000 ]
  distance:    0.0239380
  band:
  - # 1
    frequency:    0.5850800149
  - # 2
    frequency:    0.5851493060
  - # 3
    frequency:    1.6745542225
  - # 4
    frequency:    2.5963974522
  - # 5
    frequency:    2.5964366834
  - # 6
    frequency:    7.3813982098
  - # 7
    frequency:   11.7795020376
  - # 8
    frequency:   11.7795040783
  - # 9
    frequency:   12.6782071580
  - # 10
    frequency:   12.6782084603
  - # 11
    frequency:   13.2222702077
  - # 12
    frequency:   16.1048453787

- q-position: [    0.0000000,    0.0000000,    0.1300000 ]
  distance:    0.0248955
  band:
  - # 1
    frequency:    0.6079441843
  - # 2
    frequency:    0.6080155016
  - # 3
    frequency:    1.7344978540
  - # 4
    frequency:    2.5933497465
  - # 5
    frequency:    2.5933890594
  - # 6
    frequency:    7.3691402142
  - # 7
    frequency:   11.7826052026
  - # 8
    frequency:   11.7826071305
  - # 9
    frequency:   12.6753202704
  - # 10
    frequency:   12.6753215860
  - # 11
    frequency:   13.3552576457
  - # 12
    frequency:   16.1104896376

- q-position: [    0.0000000,    0.0000000,    0.1350000 ]
  distance:    0.0258530
  band:
  - # 1
    frequency:    0.6307455237
  - # 2
    frequency:    0.6308187881
  - # 3
    frequency:    1.7937381701
  - # 4
    frequency:    2.5901802281
  - # 5
    frequency:    2.5902196209
  - # 6
    frequency:    7.3567609533
  - # 7
    frequency:   11.7858218256
  - # 8
    frequency:   11.7858236494
  - # 9
    frequency:   12.6723260645
  - # 10
    frequency:   12.6723273930
  - # 11
    frequency:   13.4889524498
  - # 12
    frequency:   16.1155780733

- q-position: [    0.0000000,    0.0000000,    0.1400000 ]
  distance:    0.0268105
  band:
  - # 1
    frequency:    0.6534817313
  - # 2
    frequency:    0.6535568623
  - # 3
    frequency:    1.8522706149
  - # 4
    frequency:    2.5868886176
  - # 5
    frequency:    2.5869280879
  - # 6
    frequency:    7.3442744975
  - # 7
    frequency:   11.7891509810
  - # 8
    frequency:   11.7891527117
  - # 9
    frequency:   12.6692252165
  - # 10
    frequency:   12.6692265574
  - # 11
    frequency:   13.6230317790
  - # 12
    frequency:   16.1200575218

- q-position: [    0.0000000,    0.0000000,    0.1450000 ]
  distance:    0.0277681
  band:
  - # 1
    frequency:    0.6761505190
  - # 2
    frequency:    0.6762274346
  - # 3
    frequency:    1.9100928445
  - # 4
    frequency:    2.5834746224
  - # 5
    frequency:    2.5835141678
  - # 6
    frequency:    7.3316921831
  - # 7
    frequency:   11.7925917127
  - # 8
    frequency:   11.7925933640
  - # 9
    frequency:   12.6660184272
  - # 10
    frequency:   12.6660197798
  - # 11
    frequency:   13.7571834278
  - # 12
    frequency:   16.1238780530

- q-position: [    0.0000000,    0.0000000,    0.1500000 ]
  distance:    0.0287256
  band:
  - # 1
    frequency:    0.6987496128
  - # 2
    frequency:    0.6988282299
  - # 3
    frequency:    1.9672047546
  - # 4
    frequency:    2.5799379372
  - # 5
    frequency:    2.5799775545
  - # 6
    frequency:    7.3190226007
  - # 7
    frequency:   11.7961430345
  - # 8
    frequency:   11.7961446229
  - # 9
    frequency:   12.6627064221
  - # 10
    frequency:   12.6627077858
  - # 11
    frequency:   13.8911062092
  - # 12
    frequency:   16.1269932383

- q-position: [    0.0000000,    0.0000000,    0.1550000 ]
  distance:    0.0296831
  band:
  - # 1
    frequency:    0.7212767534
  - # 2
    frequency:    0.7213569877
  - # 3
    frequency:    2.0236085022
  - # 4
    frequency:    2.5762782432
  - # 5
    frequency:    2.5763179292
  - # 6
    frequency:    7.3062716119
  - # 7
    frequency:   11.7998039311
  - # 8
    frequency:   11.7998054756
  - # 9
    frequency:   12.6592899512
  - # 10
    frequency:   12.6592913251
  - # 11
    frequency:   14.0245102483
  - # 12
    frequency:   16.1293603967

- q-position: [    0.0000000,    0.0000000,    0.1600000 ]
  distance:    0.0306406
  band:
  - # 1
    frequency:    0.7437296968
  - # 2
    frequency:    0.7438114634
  - # 3
    frequency:    2.0793085204
  - # 4
    frequency:    2.5724952087
  - # 5
    frequency:    2.5725349595
  - # 6
    frequency:    7.2934423945
  - # 7
    frequency:   11.8035733586
  - # 8
    frequency:   11.8035748802
  - # 9
    frequency:   12.6557697889
  - # 10
    frequency:   12.6557711723
  - # 11
    frequency:   14.1571171960
  - # 12
    frequency:   16.1309408194

- q-position: [    0.0000000,    0.0000000,    0.1650000 ]
  distance:    0.0315981
  band:
  - # 1
    frequency:    0.7661062151
  - # 2
    frequency:    0.7661894281
  - # 3
    frequency:    2.1343115259
  - # 4
    frequency:    2.5685884882
  - # 5
    frequency:    2.5686282999
  - # 6
    frequency:    7.2805355117
  - # 7
    frequency:   11.8074502449
  - # 8
    frequency:   11.8074517657
  - # 9
    frequency:   12.6521467339
  - # 10
    frequency:   12.6521481260
  - # 11
    frequency:   14.2886603744
  - # 12
    frequency:   16.1316999729

- q-position: [    0.0000000,    0.0000000,    0.1700000 ]
  distance:    0.0325557
  band:
  - # 1
    frequency:    0.7884040970
  - # 2
    frequency:    0.7884886701
  - # 3
    frequency:    2.1886265188
  - # 4
    frequency:    2.5645577230
  - # 5
    frequency:    2.5645975913
  - # 6
    frequency:    7.2675490056
  - # 7
    frequency:   11.8114334907
  - # 8
    frequency:   11.8114350326
  - # 9
    frequency:   12.6484216092
  - # 10
    frequency:   12.6484230090
  - # 11
    frequency:   14.4188848638
  - # 12
    frequency:   16.1316076825

- q-position: [    0.0000000,    0.0000000,    0.1750000 ]
  distance:    0.0335132
  band:
  - # 1
    frequency:    0.8106211485
  - # 2
    frequency:    0.8107069948
  - # 3
    frequency:    2.2422647739
  - # 4
    frequency:    2.5604025408
  - # 5
    frequency:    2.5604424611
  - # 6
    frequency:    7.2544785102
  - # 7
    frequency:   11.8155219697
  - # 8
    frequency:   11.8155235535
  - # 9
    frequency:   12.6445952616
  - # 10
    frequency:   12.6445966682
  - # 11
    frequency:   14.5475475405
  - # 12
    frequency:   16.1306382939

- q-position: [    0.0000000,    0.0000000,    0.1800000 ]
  distance:    0.0344707
  band:
  - # 1
    frequency:    0.8327551932
  - # 2
    frequency:    0.8328422256
  - # 3
    frequency:    2.2952398235
  - # 4
    frequency:    2.5561225557
  - # 5
    frequency:    2.5561625233
  - # 6
    frequency:    7.2413173833
  - # 7
    frequency:   11.8197145292
  - # 8
    frequency:   11.8197161737
  - # 9
    frequency:   12.6406685622
  - # 10
    frequency:   12.6406699746
  - # 11
    frequency:   14.6744170722
  - # 12
    frequency:   16.1287708158

- q-position: [    0.0000000,    0.0000000,    0.1850000 ]
  distance:    0.0354282
  band:
  - # 1
    frequency:    0.8548040734
  - # 2
    frequency:    0.8548922049
  - # 3
    frequency:    2.3475674305
  - # 4
    frequency:    2.5517173683
  - # 5
    frequency:    2.5517573780
  - # 6
    frequency:    7.2280568531
  - # 7
    frequency:   11.8240099904
  - # 8
    frequency:   11.8240117117
  - # 9
    frequency:   12.6366424054
  - # 10
    frequency:   12.6366438226
  - # 11
    frequency:   14.7992738795
  - # 12
    frequency:   16.1259890432

- q-position: [    0.0000000,    0.0000000,    0.1900000 ]
  distance:    0.0363857
  band:
  - # 1
    frequency:    0.8767656508
  - # 2
    frequency:    0.8768547940
  - # 3
    frequency:    2.3992655523
  - # 4
    frequency:    2.5471865653
  - # 5
    frequency:    2.5472266121
  - # 6
    frequency:    7.2146861777
  - # 7
    frequency:   11.8284071486
  - # 8
    frequency:   11.8284089600
  - # 9
    frequency:   12.6325177095
  - # 10
    frequency:   12.6325191305
  - # 11
    frequency:   14.9219100685
  - # 12
    frequency:   16.1222816614

- q-position: [    0.0000000,    0.0000000,    0.1950000 ]
  distance:    0.0373432
  band:
  - # 1
    frequency:    0.8986378065
  - # 2
    frequency:    0.8987278745
  - # 3
    frequency:    2.4503542944
  - # 4
    frequency:    2.5425297201
  - # 5
    frequency:    2.5425697988
  - # 6
    frequency:    7.2011928142
  - # 7
    frequency:   11.8329047736
  - # 8
    frequency:   11.8329066859
  - # 9
    frequency:   12.6282954164
  - # 10
    frequency:   12.6282968400
  - # 11
    frequency:   15.0421293406
  - # 12
    frequency:   16.1176423314

- q-position: [    0.0000000,    0.0000000,    0.2000000 ]
  distance:    0.0383008
  band:
  - # 1
    frequency:    0.9204184423
  - # 2
    frequency:    0.9205093484
  - # 3
    frequency:    2.5008558533
  - # 4
    frequency:    2.5377463925
  - # 5
    frequency:    2.5377864976
  - # 6
    frequency:    7.1875625954
  - # 7
    frequency:   11.8375016106
  - # 8
    frequency:   11.8375036318
  - # 9
    frequency:   12.6239764909
  - # 10
    frequency:   12.6239779162
  - # 11
    frequency:   15.1597468835
  - # 12
    frequency:   16.1120697579

- q-position: [    0.0000000,    0.0000000,    0.2050000 ]
  distance:    0.0392583
  band:
  - # 1
    frequency:    0.9421054812
  - # 2
    frequency:    0.9421971393
  - # 3
    frequency:    2.5328361287
  - # 4
    frequency:    2.5328762548
  - # 5
    frequency:    2.5507944485
  - # 6
    frequency:    7.1737799103
  - # 7
    frequency:   11.8421963801
  - # 8
    frequency:   11.8421985162
  - # 9
    frequency:   12.6195619212
  - # 10
    frequency:   12.6195633472
  - # 11
    frequency:   15.2745892477
  - # 12
    frequency:   16.1055677388

- q-position: [    0.0000000,    0.0000000,    0.2100000 ]
  distance:    0.0402158
  band:
  - # 1
    frequency:    0.9636968679
  - # 2
    frequency:    0.9637891925
  - # 3
    frequency:    2.5277984617
  - # 4
    frequency:    2.5278386035
  - # 5
    frequency:    2.6001962440
  - # 6
    frequency:    7.1598278866
  - # 7
    frequency:   11.8469877788
  - # 8
    frequency:   11.8469900338
  - # 9
    frequency:   12.6150527186
  - # 10
    frequency:   12.6150541441
  - # 11
    frequency:   15.3864942117
  - # 12
    frequency:   16.0981451985

- q-position: [    0.0000000,    0.0000000,    0.2150000 ]
  distance:    0.0411733
  band:
  - # 1
    frequency:    0.9851905696
  - # 2
    frequency:    0.9852834760
  - # 3
    frequency:    2.5226329113
  - # 4
    frequency:    2.5226730633
  - # 5
    frequency:    2.6490892579
  - # 6
    frequency:    7.1456885729
  - # 7
    frequency:   11.8518744799
  - # 8
    frequency:   11.8518768562
  - # 9
    frequency:   12.6104499167
  - # 10
    frequency:   12.6104513409
  - # 11
    frequency:   15.4953106389
  - # 12
    frequency:   16.0898162033

- q-position: [    0.0000000,    0.0000000,    0.2200000 ]
  distance:    0.0421308
  band:
  - # 1
    frequency:    1.0065845769
  - # 2
    frequency:    1.0066779811
  - # 3
    frequency:    2.5173389839
  - # 4
    frequency:    2.5173791409
  - # 5
    frequency:    2.6975032605
  - # 6
    frequency:    7.1313431171
  - # 7
    frequency:   11.8568551340
  - # 8
    frequency:   11.8568576327
  - # 9
    frequency:   12.6057545722
  - # 10
    frequency:   12.6057559941
  - # 11
    frequency:   15.6008983279
  - # 12
    frequency:   16.0805999606

- q-position: [    0.0000000,    0.0000000,    0.2250000 ]
  distance:    0.0430884
  band:
  - # 1
    frequency:    1.0278769040
  - # 2
    frequency:    1.0279707233
  - # 3
    frequency:    2.5119161734
  - # 4
    frequency:    2.5119563302
  - # 5
    frequency:    2.7454696610
  - # 6
    frequency:    7.1167719401
  - # 7
    frequency:   11.8619283693
  - # 8
    frequency:   11.8619309902
  - # 9
    frequency:   12.6009677639
  - # 10
    frequency:   12.6009691825
  - # 11
    frequency:   15.7031278590
  - # 12
    frequency:   16.0705208021

- q-position: [    0.0000000,    0.0000000,    0.2300000 ]
  distance:    0.0440459
  band:
  - # 1
    frequency:    1.0490655897
  - # 2
    frequency:    1.0491597423
  - # 3
    frequency:    2.5063639609
  - # 4
    frequency:    2.5064041125
  - # 5
    frequency:    2.7930213826
  - # 6
    frequency:    7.1019549016
  - # 7
    frequency:   11.8670927924
  - # 8
    frequency:   11.8670955344
  - # 9
    frequency:   12.5960905927
  - # 10
    frequency:   12.5960920072
  - # 11
    frequency:   15.8018804376
  - # 12
    frequency:   16.0596081492

- q-position: [    0.0000000,    0.0000000,    0.2350000 ]
  distance:    0.0450034
  band:
  - # 1
    frequency:    1.0701486980
  - # 2
    frequency:    1.0702431037
  - # 3
    frequency:    2.5006818152
  - # 4
    frequency:    2.5007219567
  - # 5
    frequency:    2.8401927264
  - # 6
    frequency:    7.0868714573
  - # 7
    frequency:   11.8723469887
  - # 8
    frequency:   11.8723498498
  - # 9
    frequency:   12.5911241818
  - # 10
    frequency:   12.5911255913
  - # 11
    frequency:   15.8970477358
  - # 12
    frequency:   16.0478964640

- q-position: [    0.0000000,    0.0000000,    0.2400000 ]
  distance:    0.0459609
  band:
  - # 1
    frequency:    1.0911243187
  - # 2
    frequency:    1.0912188985
  - # 3
    frequency:    2.4948691927
  - # 4
    frequency:    2.4949093198
  - # 5
    frequency:    2.8870192236
  - # 6
    frequency:    7.0715008041
  - # 7
    frequency:   11.8776895231
  - # 8
    frequency:   11.8776925006
  - # 9